LAMMPS data file. CGCMM style. atom_style full generated by VMD/TopoTools v1.5 on Sun Jul 18 19:44:16 +0430 2021
 14757 atoms
 8590 bonds
 4295 angles
 4 atom types
 1 bond types
 1 angle types
 -0.5940056 56.2940056  xlo xhi
  0.5000000 61.809000  ylo yhi
 -25.000000 65.000000  zlo zhi


 Masses

 1 1.008000 # H
 2 15.999000 # O
 3 30.973761 # Pb
 4 30.973761 # Pt

 Atoms

1 1 1 0.000000 7.702000 50.300999 6.019000 # H HOH
2 1 1 0.000000 7.852000 49.153999 7.171000 # H HOH
3 1 2 0.000000 7.203000 49.699001 6.642000 # O HOH
4 2 1 0.000000 47.405998 48.162998 10.219000 # H HOH
5 2 1 0.000000 47.798000 46.577999 10.256000 # H HOH
6 2 2 0.000000 47.042000 47.230999 10.239000 # O HOH
7 3 1 0.000000 20.431999 38.243999 31.448000 # H HOH
8 3 1 0.000000 20.997999 37.865002 32.931999 # H HOH
9 3 2 0.000000 20.271000 38.333000 32.431000 # O HOH
10 4 1 0.000000 12.514000 16.795000 35.000000 # H HOH
11 4 1 0.000000 11.086000 16.002001 35.000000 # H HOH
12 4 2 0.000000 11.778000 16.437000 34.424999 # O HOH
13 5 1 0.000000 39.898998 46.056999 9.715000 # H HOH
14 5 1 0.000000 39.790001 44.574001 9.041000 # H HOH
15 5 2 0.000000 39.285000 45.291000 9.520000 # O HOH
16 6 1 0.000000 19.368999 7.650000 21.805000 # H HOH
17 6 1 0.000000 20.870001 7.782000 22.436001 # H HOH
18 6 2 0.000000 19.906000 7.623000 22.649000 # O HOH
19 7 1 0.000000 21.610001 51.623001 9.374000 # H HOH
20 7 1 0.000000 20.594999 51.285999 10.608000 # H HOH
21 7 2 0.000000 21.486000 51.081001 10.206000 # O HOH
22 8 1 0.000000 8.134000 14.529000 19.690001 # H HOH
23 8 1 0.000000 8.724000 13.358000 18.716000 # H HOH
24 8 2 0.000000 8.915000 14.247000 19.132000 # O HOH
25 9 1 0.000000 26.135000 5.612000 12.580000 # H HOH
26 9 1 0.000000 26.289000 6.233000 14.082000 # H HOH
27 9 2 0.000000 26.771000 5.780000 13.333000 # O HOH
28 10 1 0.000000 8.718000 30.827999 12.726000 # H HOH
29 10 1 0.000000 9.808000 31.882000 12.119000 # H HOH
30 10 2 0.000000 9.690000 30.988001 12.550000 # O HOH
31 11 1 0.000000 10.668000 26.601000 21.216000 # H HOH
32 11 1 0.000000 11.659000 27.834999 21.615999 # H HOH
33 11 2 0.000000 11.115000 27.077000 21.973000 # O HOH
34 12 1 0.000000 15.160000 20.447001 8.945000 # H HOH
35 12 1 0.000000 14.936000 19.301001 7.803000 # H HOH
36 12 2 0.000000 14.477000 19.917000 8.442000 # O HOH
37 13 1 0.000000 44.988998 32.433998 17.861000 # H HOH
38 13 1 0.000000 44.007000 33.735001 17.764000 # H HOH
39 13 2 0.000000 44.036999 32.737000 17.816000 # O HOH
40 14 1 0.000000 34.488998 35.625000 29.653999 # H HOH
41 14 1 0.000000 33.764000 34.220001 29.243000 # H HOH
42 14 2 0.000000 34.598999 34.632000 29.607000 # O HOH
43 15 1 0.000000 48.118000 24.224001 22.419001 # H HOH
44 15 1 0.000000 48.104000 22.658001 22.879000 # H HOH
45 15 2 0.000000 48.074001 23.278999 22.097000 # O HOH
46 16 1 0.000000 11.380000 26.910999 18.486000 # H HOH
47 16 1 0.000000 10.535000 25.826000 19.365999 # H HOH
48 16 2 0.000000 11.351000 26.402000 19.347000 # O HOH
49 17 1 0.000000 9.907000 14.387000 35.000000 # H HOH
50 17 1 0.000000 8.276000 14.475000 35.000000 # H HOH
51 17 2 0.000000 9.060000 13.855000 35.000000 # O HOH
52 18 1 0.000000 8.158000 34.241001 14.223000 # H HOH
53 18 1 0.000000 8.468000 32.706001 13.758000 # H HOH
54 18 2 0.000000 8.156000 33.283001 14.512000 # O HOH
55 19 1 0.000000 20.386999 32.397999 17.466999 # H HOH
56 19 1 0.000000 19.462999 33.275002 18.489000 # H HOH
57 19 2 0.000000 20.176001 33.320999 17.790001 # O HOH
58 20 1 0.000000 30.257000 12.281000 5.051000 # H HOH
59 20 1 0.000000 31.030001 12.464000 6.478000 # H HOH
60 20 2 0.000000 30.587999 11.808000 5.868000 # O HOH
61 21 1 0.000000 37.644001 47.625000 13.422000 # H HOH
62 21 1 0.000000 38.688000 47.736000 12.172000 # H HOH
63 21 2 0.000000 38.542000 47.958000 13.135000 # O HOH
64 22 1 0.000000 30.340000 46.665001 33.092999 # H HOH
65 22 1 0.000000 30.862000 47.441002 34.432999 # H HOH
66 22 2 0.000000 30.330999 47.533001 33.591000 # O HOH
67 23 1 0.000000 47.993000 51.800999 32.452000 # H HOH
68 23 1 0.000000 47.563999 51.762001 30.875999 # H HOH
69 23 2 0.000000 47.263000 52.002998 31.798000 # O HOH
70 24 1 0.000000 30.473000 29.134001 5.000000 # H HOH
71 24 1 0.000000 32.015999 28.622000 5.159000 # H HOH
72 24 2 0.000000 31.063999 28.330000 5.066000 # O HOH
73 25 1 0.000000 40.708000 51.200001 17.655001 # H HOH
74 25 1 0.000000 42.025002 52.000999 17.117001 # H HOH
75 25 2 0.000000 41.401001 51.882999 17.888000 # O HOH
76 26 1 0.000000 49.264999 15.079000 11.456000 # H HOH
77 26 1 0.000000 49.713001 15.718000 12.890000 # H HOH
78 26 2 0.000000 50.000000 15.134000 12.132000 # O HOH
79 27 1 0.000000 38.772999 11.258000 11.567000 # H HOH
80 27 1 0.000000 38.729000 12.099000 10.167000 # H HOH
81 27 2 0.000000 39.001999 12.127000 11.128000 # O HOH
82 28 1 0.000000 19.528000 43.368000 5.078000 # H HOH
83 28 1 0.000000 18.889999 41.867001 5.000000 # H HOH
84 28 2 0.000000 18.677999 42.842999 5.037000 # O HOH
85 29 1 0.000000 45.826000 29.174000 23.186001 # H HOH
86 29 1 0.000000 46.001999 30.080000 21.839001 # H HOH
87 29 2 0.000000 46.452000 29.429001 22.448999 # O HOH
88 30 1 0.000000 36.271000 44.558998 33.700001 # H HOH
89 30 1 0.000000 35.785000 45.418999 35.000000 # H HOH
90 30 2 0.000000 35.630001 45.254002 34.027000 # O HOH
91 31 1 0.000000 25.688999 49.515999 29.183001 # H HOH
92 31 1 0.000000 26.815001 50.077000 30.225000 # H HOH
93 31 2 0.000000 25.896000 50.223000 29.858999 # O HOH
94 32 1 0.000000 20.568001 36.601002 10.668000 # H HOH
95 32 1 0.000000 19.518999 37.623001 9.947000 # H HOH
96 32 2 0.000000 20.444000 37.527000 10.314000 # O HOH
97 33 1 0.000000 44.758999 10.082000 9.212000 # H HOH
98 33 1 0.000000 45.428001 11.385000 9.935000 # H HOH
99 33 2 0.000000 45.570000 10.666000 9.255000 # O HOH
100 34 1 0.000000 38.240002 27.375000 34.999001 # H HOH
101 34 1 0.000000 39.403999 26.230000 35.000999 # H HOH
102 34 2 0.000000 39.089001 27.072001 34.564999 # O HOH
103 35 1 0.000000 9.934000 44.238998 15.206000 # H HOH
104 35 1 0.000000 10.247000 42.970001 14.226000 # H HOH
105 35 2 0.000000 10.369000 43.340000 15.147000 # O HOH
106 36 1 0.000000 12.018000 14.406000 28.905001 # H HOH
107 36 1 0.000000 11.779000 15.348000 27.593000 # H HOH
108 36 2 0.000000 11.861000 15.342000 28.589001 # O HOH
109 37 1 0.000000 24.704000 39.162998 27.712000 # H HOH
110 37 1 0.000000 25.534000 40.340000 28.482000 # H HOH
111 37 2 0.000000 25.291000 39.370998 28.496000 # O HOH
112 38 1 0.000000 40.001999 13.536000 17.382000 # H HOH
113 38 1 0.000000 41.327999 14.046000 18.187000 # H HOH
114 38 2 0.000000 40.805000 14.130000 17.339001 # O HOH
115 39 1 0.000000 16.761000 21.002001 18.365000 # H HOH
116 39 1 0.000000 17.830999 22.230000 18.235001 # H HOH
117 39 2 0.000000 17.721001 21.237000 18.205000 # O HOH
118 40 1 0.000000 47.886002 24.847000 8.462000 # H HOH
119 40 1 0.000000 48.494999 23.356001 8.730000 # H HOH
120 40 2 0.000000 47.869999 24.056000 9.074000 # O HOH
121 41 1 0.000000 7.178000 52.000000 18.240999 # H HOH
122 41 1 0.000000 5.986000 50.941002 17.891001 # H HOH
123 41 2 0.000000 6.371000 51.530998 18.600000 # O HOH
124 42 1 0.000000 24.377001 47.967999 17.549999 # H HOH
125 42 1 0.000000 23.715000 46.806000 18.487000 # H HOH
126 42 2 0.000000 24.568001 47.157001 18.101999 # O HOH
127 43 1 0.000000 8.056000 13.037000 32.890999 # H HOH
128 43 1 0.000000 9.376000 13.709000 32.202999 # H HOH
129 43 2 0.000000 8.982000 13.377000 33.060001 # O HOH
130 44 1 0.000000 44.092999 42.347000 21.386000 # H HOH
131 44 1 0.000000 43.719002 43.925999 21.563999 # H HOH
132 44 2 0.000000 44.237999 43.162998 21.945999 # O HOH
133 45 1 0.000000 22.698000 23.080000 8.488000 # H HOH
134 45 1 0.000000 21.322001 22.848000 7.641000 # H HOH
135 45 2 0.000000 21.700001 23.037001 8.546000 # O HOH
136 46 1 0.000000 22.927000 41.752998 5.000000 # H HOH
137 46 1 0.000000 22.745001 43.283001 5.539000 # H HOH
138 46 2 0.000000 22.325001 42.551998 5.003000 # O HOH
139 47 1 0.000000 16.249001 38.055000 31.208000 # H HOH
140 47 1 0.000000 16.452000 39.466999 32.002998 # H HOH
141 47 2 0.000000 15.786000 38.869999 31.556000 # O HOH
142 48 1 0.000000 26.403000 29.955000 5.006000 # H HOH
143 48 1 0.000000 25.101999 30.941999 5.000000 # H HOH
144 48 2 0.000000 26.101000 30.908001 5.004000 # O HOH
145 49 1 0.000000 8.294000 45.342999 20.910999 # H HOH
146 49 1 0.000000 9.580000 45.383999 19.906000 # H HOH
147 49 2 0.000000 9.218000 45.701000 20.782000 # O HOH
148 50 1 0.000000 18.511999 32.521999 27.874001 # H HOH
149 50 1 0.000000 18.586000 32.894001 29.462999 # H HOH
150 50 2 0.000000 17.997000 32.874001 28.656000 # O HOH
151 51 1 0.000000 21.674000 9.381000 5.001000 # H HOH
152 51 1 0.000000 22.768000 8.169000 5.001000 # H HOH
153 51 2 0.000000 21.792999 8.388000 4.999000 # O HOH
154 52 1 0.000000 40.623001 48.254002 22.913000 # H HOH
155 52 1 0.000000 40.140999 46.835999 23.563999 # H HOH
156 52 2 0.000000 40.924999 47.349998 23.216999 # O HOH
157 53 1 0.000000 29.825001 6.752000 8.532000 # H HOH
158 53 1 0.000000 29.347000 6.278000 10.019000 # H HOH
159 53 2 0.000000 29.933001 6.910000 9.513000 # O HOH
160 54 1 0.000000 5.977000 26.843000 6.940000 # H HOH
161 54 1 0.000000 5.000000 28.150000 7.002000 # H HOH
162 54 2 0.000000 5.026000 27.150999 6.969000 # O HOH
163 55 1 0.000000 40.339001 17.100000 21.957001 # H HOH
164 55 1 0.000000 40.966000 16.049000 23.038000 # H HOH
165 55 2 0.000000 41.130001 16.896999 22.534000 # O HOH
166 56 1 0.000000 28.546000 8.882000 23.278999 # H HOH
167 56 1 0.000000 27.528000 7.752000 23.872999 # H HOH
168 56 2 0.000000 28.231001 8.421000 24.108999 # O HOH
169 57 1 0.000000 44.104000 26.572001 24.663000 # H HOH
170 57 1 0.000000 42.854000 26.635000 25.712000 # H HOH
171 57 2 0.000000 43.316002 27.110001 24.964001 # O HOH
172 58 1 0.000000 14.646000 49.046001 14.041000 # H HOH
173 58 1 0.000000 14.928000 48.007000 12.814000 # H HOH
174 58 2 0.000000 14.899000 48.106998 13.808000 # O HOH
175 59 1 0.000000 40.834999 12.546000 22.113001 # H HOH
176 59 1 0.000000 40.219002 11.942000 20.726999 # H HOH
177 59 2 0.000000 40.105000 11.988000 21.719000 # O HOH
178 60 1 0.000000 50.000000 41.957001 20.103001 # H HOH
179 60 1 0.000000 50.000000 41.863998 18.473000 # H HOH
180 60 2 0.000000 49.549000 41.550999 19.308001 # O HOH
181 61 1 0.000000 42.389000 14.745000 23.562000 # H HOH
182 61 1 0.000000 41.644001 14.375000 22.156000 # H HOH
183 61 2 0.000000 41.929001 14.021000 23.047001 # O HOH
184 62 1 0.000000 15.749000 21.733000 26.427000 # H HOH
185 62 1 0.000000 14.165000 21.636000 26.044001 # H HOH
186 62 2 0.000000 14.986000 21.108999 26.260000 # O HOH
187 63 1 0.000000 50.000000 15.114000 30.094999 # H HOH
188 63 1 0.000000 50.000000 14.080000 31.358999 # H HOH
189 63 2 0.000000 49.724998 14.204000 30.406000 # O HOH
190 64 1 0.000000 47.964001 37.138000 19.740999 # H HOH
191 64 1 0.000000 48.347000 37.549999 18.208000 # H HOH
192 64 2 0.000000 47.610001 37.506001 18.881001 # O HOH
193 65 1 0.000000 23.829000 21.878000 13.769000 # H HOH
194 65 1 0.000000 23.191999 22.238001 12.309000 # H HOH
195 65 2 0.000000 23.872000 22.504999 12.992000 # O HOH
196 66 1 0.000000 42.594002 47.304001 24.667000 # H HOH
197 66 1 0.000000 42.977001 47.942001 23.212999 # H HOH
198 66 2 0.000000 43.323002 47.722000 24.125000 # O HOH
199 67 1 0.000000 10.477000 28.830000 23.535000 # H HOH
200 67 1 0.000000 11.764000 28.846001 24.540001 # H HOH
201 67 2 0.000000 11.306000 28.341999 23.808001 # O HOH
202 68 1 0.000000 49.978001 34.176998 27.108999 # H HOH
203 68 1 0.000000 48.577000 33.458000 27.541000 # H HOH
204 68 2 0.000000 49.014000 34.331001 27.323999 # O HOH
205 69 1 0.000000 28.051001 15.281000 20.781000 # H HOH
206 69 1 0.000000 29.462000 14.489000 20.558001 # H HOH
207 69 2 0.000000 28.466000 14.407000 20.525999 # O HOH
208 70 1 0.000000 32.051998 15.322000 16.955999 # H HOH
209 70 1 0.000000 33.265999 16.379999 17.226000 # H HOH
210 70 2 0.000000 32.566002 16.091000 16.573999 # O HOH
211 71 1 0.000000 36.319000 39.469002 5.000000 # H HOH
212 71 1 0.000000 34.979000 40.403000 5.003000 # H HOH
213 71 2 0.000000 35.335999 39.487000 5.183000 # O HOH
214 72 1 0.000000 9.892000 26.917999 23.548000 # H HOH
215 72 1 0.000000 9.113000 25.509001 23.270000 # H HOH
216 72 2 0.000000 9.993000 25.980000 23.214001 # O HOH
217 73 1 0.000000 14.027000 5.000000 28.122999 # H HOH
218 73 1 0.000000 15.268000 5.007000 29.184000 # H HOH
219 73 2 0.000000 15.023000 5.009000 28.216000 # O HOH
220 74 1 0.000000 39.410999 43.261002 23.348000 # H HOH
221 74 1 0.000000 39.276001 44.888000 23.285999 # H HOH
222 74 2 0.000000 39.456001 44.105999 23.882000 # O HOH
223 75 1 0.000000 34.716000 40.640999 13.603000 # H HOH
224 75 1 0.000000 36.299999 40.268002 13.736000 # H HOH
225 75 2 0.000000 35.426998 39.988998 13.338000 # O HOH
226 76 1 0.000000 29.437000 25.634001 34.912998 # H HOH
227 76 1 0.000000 31.042999 25.915001 35.000000 # H HOH
228 76 2 0.000000 30.191000 26.184000 34.553001 # O HOH
229 77 1 0.000000 10.344000 30.657000 14.411000 # H HOH
230 77 1 0.000000 9.396000 31.424999 15.497000 # H HOH
231 77 2 0.000000 9.498000 31.177000 14.534000 # O HOH
232 78 1 0.000000 5.896000 23.945000 16.924000 # H HOH
233 78 1 0.000000 5.706000 24.489000 18.452000 # H HOH
234 78 2 0.000000 5.950000 23.698000 17.891001 # O HOH
235 79 1 0.000000 38.390999 18.978001 20.232000 # H HOH
236 79 1 0.000000 39.564999 17.843000 20.268999 # H HOH
237 79 2 0.000000 38.577999 17.995001 20.239000 # O HOH
238 80 1 0.000000 17.593000 8.548000 34.098999 # H HOH
239 80 1 0.000000 17.773001 9.943000 33.270000 # H HOH
240 80 2 0.000000 17.131001 9.218000 33.516998 # O HOH
241 81 1 0.000000 36.418999 7.041000 25.500999 # H HOH
242 81 1 0.000000 34.799999 7.133000 25.694000 # H HOH
243 81 2 0.000000 35.535000 6.956000 25.041000 # O HOH
244 82 1 0.000000 11.103000 49.195000 23.645000 # H HOH
245 82 1 0.000000 10.431000 50.174000 22.523001 # H HOH
246 82 2 0.000000 10.380000 49.863998 23.472000 # O HOH
247 83 1 0.000000 26.309999 25.739000 17.811001 # H HOH
248 83 1 0.000000 24.926001 26.020000 16.992001 # H HOH
249 83 2 0.000000 25.377001 25.416000 17.648001 # O HOH
250 84 1 0.000000 11.287000 50.162998 11.117000 # H HOH
251 84 1 0.000000 12.904000 50.293999 10.927000 # H HOH
252 84 2 0.000000 12.140000 49.653999 10.999000 # O HOH
253 85 1 0.000000 11.468000 6.890000 33.374001 # H HOH
254 85 1 0.000000 10.110000 6.842000 32.469002 # H HOH
255 85 2 0.000000 10.605000 7.353000 33.169998 # O HOH
256 86 1 0.000000 26.750000 19.292000 14.534000 # H HOH
257 86 1 0.000000 25.766001 19.030001 13.257000 # H HOH
258 86 2 0.000000 25.806000 19.339001 14.207000 # O HOH
259 87 1 0.000000 21.164000 19.044001 5.270000 # H HOH
260 87 1 0.000000 22.018000 17.657000 5.161000 # H HOH
261 87 2 0.000000 21.125999 18.080000 5.006000 # O HOH
262 88 1 0.000000 11.013000 42.307999 34.165001 # H HOH
263 88 1 0.000000 9.829000 43.058998 35.000999 # H HOH
264 88 2 0.000000 10.776000 43.126999 34.687000 # O HOH
265 89 1 0.000000 37.860001 45.467999 14.809000 # H HOH
266 89 1 0.000000 38.488998 43.964001 14.899000 # H HOH
267 89 2 0.000000 37.644001 44.491001 14.820000 # O HOH
268 90 1 0.000000 6.475000 26.157000 33.915001 # H HOH
269 90 1 0.000000 5.004000 26.349001 34.598000 # H HOH
270 90 2 0.000000 5.973000 26.584999 34.667000 # O HOH
271 91 1 0.000000 34.198002 11.971000 19.294001 # H HOH
272 91 1 0.000000 34.294998 13.601000 19.313999 # H HOH
273 91 2 0.000000 34.821999 12.753000 19.316999 # O HOH
274 92 1 0.000000 47.223999 30.660000 35.000000 # H HOH
275 92 1 0.000000 48.000000 32.096001 34.960999 # H HOH
276 92 2 0.000000 48.113998 31.105000 34.897999 # O HOH
277 93 1 0.000000 35.459000 18.622000 33.250000 # H HOH
278 93 1 0.000000 36.103001 20.122999 33.227001 # H HOH
279 93 2 0.000000 35.250999 19.600000 33.226002 # O HOH
280 94 1 0.000000 25.271000 14.853000 32.712002 # H HOH
281 94 1 0.000000 26.194000 13.511000 32.589001 # H HOH
282 94 2 0.000000 26.197001 14.510000 32.549999 # O HOH
283 95 1 0.000000 49.057999 14.196000 9.367000 # H HOH
284 95 1 0.000000 50.000000 12.866000 9.271000 # H HOH
285 95 2 0.000000 50.000000 13.860000 9.374000 # O HOH
286 96 1 0.000000 5.276000 19.281000 22.705999 # H HOH
287 96 1 0.000000 6.542000 20.306999 22.812000 # H HOH
288 96 2 0.000000 6.126000 19.482000 23.194000 # O HOH
289 97 1 0.000000 31.738001 25.399000 28.827000 # H HOH
290 97 1 0.000000 32.139999 24.966999 27.304001 # H HOH
291 97 2 0.000000 31.392000 25.261999 27.898001 # O HOH
292 98 1 0.000000 21.495001 20.334999 7.408000 # H HOH
293 98 1 0.000000 23.018999 20.760000 7.003000 # H HOH
294 98 2 0.000000 22.188000 21.052999 7.475000 # O HOH
295 99 1 0.000000 25.110001 19.830999 8.434000 # H HOH
296 99 1 0.000000 25.768999 18.500999 7.754000 # H HOH
297 99 2 0.000000 25.724001 19.056000 8.584000 # O HOH
298 100 1 0.000000 25.231001 45.076000 21.867001 # H HOH
299 100 1 0.000000 23.789000 45.544998 21.261000 # H HOH
300 100 2 0.000000 24.296000 45.345001 22.099001 # O HOH
301 101 1 0.000000 20.040001 48.147999 20.629999 # H HOH
302 101 1 0.000000 19.671000 48.109001 19.040001 # H HOH
303 101 2 0.000000 19.525999 47.662998 19.922001 # O HOH
304 102 1 0.000000 30.014999 23.775000 28.896999 # H HOH
305 102 1 0.000000 31.215000 23.627001 29.993999 # H HOH
306 102 2 0.000000 30.983000 23.556999 29.025000 # O HOH
307 103 1 0.000000 9.126000 15.790000 29.631001 # H HOH
308 103 1 0.000000 7.524000 15.473000 29.615000 # H HOH
309 103 2 0.000000 8.380000 15.326000 30.108999 # O HOH
310 104 1 0.000000 30.759001 29.238001 10.690000 # H HOH
311 104 1 0.000000 31.044001 30.490000 9.681000 # H HOH
312 104 2 0.000000 30.361000 30.051001 10.264000 # O HOH
313 105 1 0.000000 45.591000 14.612000 31.316999 # H HOH
314 105 1 0.000000 46.917999 15.551000 31.167999 # H HOH
315 105 2 0.000000 46.109001 15.365000 31.723000 # O HOH
316 106 1 0.000000 47.431000 7.572000 12.425000 # H HOH
317 106 1 0.000000 47.053001 7.263000 13.984000 # H HOH
318 106 2 0.000000 46.787998 7.772000 13.165000 # O HOH
319 107 1 0.000000 29.343000 20.236000 34.273998 # H HOH
320 107 1 0.000000 30.128000 21.524000 34.900002 # H HOH
321 107 2 0.000000 29.334999 20.924000 35.000999 # O HOH
322 108 1 0.000000 28.197001 29.777000 15.771000 # H HOH
323 108 1 0.000000 27.829000 31.164000 14.991000 # H HOH
324 108 2 0.000000 27.969000 30.743999 15.887000 # O HOH
325 109 1 0.000000 16.698999 47.167000 13.208000 # H HOH
326 109 1 0.000000 17.783001 45.952999 13.071000 # H HOH
327 109 2 0.000000 16.815001 46.173000 13.183000 # O HOH
328 110 1 0.000000 16.052999 9.405000 8.961000 # H HOH
329 110 1 0.000000 15.734000 9.804000 7.411000 # H HOH
330 110 2 0.000000 16.165001 9.128000 8.007000 # O HOH
331 111 1 0.000000 5.307000 36.653999 6.064000 # H HOH
332 111 1 0.000000 5.792000 37.793999 5.000000 # H HOH
333 111 2 0.000000 5.000000 37.320999 5.385000 # O HOH
334 112 1 0.000000 50.000000 32.097000 34.981998 # H HOH
335 112 1 0.000000 50.000000 33.438000 34.049999 # H HOH
336 112 2 0.000000 49.848000 33.085999 34.973000 # O HOH
337 113 1 0.000000 47.098000 29.429001 29.143000 # H HOH
338 113 1 0.000000 46.154999 29.778999 30.429001 # H HOH
339 113 2 0.000000 46.992001 29.320999 30.131001 # O HOH
340 114 1 0.000000 9.221000 5.000000 17.518000 # H HOH
341 114 1 0.000000 7.628000 5.000000 17.878000 # H HOH
342 114 2 0.000000 8.426000 5.577000 17.709000 # O HOH
343 115 1 0.000000 13.406000 44.323002 24.160999 # H HOH
344 115 1 0.000000 14.825000 43.993000 23.424999 # H HOH
345 115 2 0.000000 14.398000 44.443001 24.208000 # O HOH
346 116 1 0.000000 24.872999 20.921000 6.095000 # H HOH
347 116 1 0.000000 24.985001 22.549999 6.061000 # H HOH
348 116 2 0.000000 25.275999 21.722000 6.538000 # O HOH
349 117 1 0.000000 11.580000 25.718000 14.245000 # H HOH
350 117 1 0.000000 11.018000 24.195999 14.065000 # H HOH
351 117 2 0.000000 11.684000 24.864000 13.735000 # O HOH
352 118 1 0.000000 24.190001 29.514999 6.065000 # H HOH
353 118 1 0.000000 22.961000 29.660999 5.000000 # H HOH
354 118 2 0.000000 23.278000 29.186001 5.820000 # O HOH
355 119 1 0.000000 38.591000 21.240999 33.542999 # H HOH
356 119 1 0.000000 37.985001 22.554001 32.785000 # H HOH
357 119 2 0.000000 37.881001 21.569000 32.919998 # O HOH
358 120 1 0.000000 32.054001 43.980000 34.998001 # H HOH
359 120 1 0.000000 30.483000 44.396999 34.842999 # H HOH
360 120 2 0.000000 31.417000 44.745998 34.908001 # O HOH
361 121 1 0.000000 42.318001 37.681999 34.310001 # H HOH
362 121 1 0.000000 41.396999 38.367001 33.148998 # H HOH
363 121 2 0.000000 42.113998 37.695000 33.331001 # O HOH
364 122 1 0.000000 13.908000 24.334000 5.000000 # H HOH
365 122 1 0.000000 13.147000 22.889000 5.000000 # H HOH
366 122 2 0.000000 13.931000 23.398001 5.353000 # O HOH
367 123 1 0.000000 44.397999 15.573000 10.411000 # H HOH
368 123 1 0.000000 42.805000 15.236000 10.545000 # H HOH
369 123 2 0.000000 43.709000 14.849000 10.366000 # O HOH
370 124 1 0.000000 22.478001 34.230999 5.093000 # H HOH
371 124 1 0.000000 23.902000 34.139000 5.886000 # H HOH
372 124 2 0.000000 23.452999 34.029999 5.000000 # O HOH
373 125 1 0.000000 33.006001 34.858002 21.371000 # H HOH
374 125 1 0.000000 31.431999 35.279999 21.465000 # H HOH
375 125 2 0.000000 32.069000 34.512001 21.420000 # O HOH
376 126 1 0.000000 47.105999 24.108000 34.895000 # H HOH
377 126 1 0.000000 47.566002 23.785000 33.362000 # H HOH
378 126 2 0.000000 47.243000 24.497999 33.984001 # O HOH
379 127 1 0.000000 6.421000 30.417000 21.783001 # H HOH
380 127 1 0.000000 7.106000 28.934000 21.778000 # H HOH
381 127 2 0.000000 7.287000 29.917000 21.781000 # O HOH
382 128 1 0.000000 44.425999 25.693001 22.042000 # H HOH
383 128 1 0.000000 44.202999 26.466999 20.621000 # H HOH
384 128 2 0.000000 44.596001 25.658001 21.056999 # O HOH
385 129 1 0.000000 6.974000 10.986000 5.072000 # H HOH
386 129 1 0.000000 6.833000 9.360000 5.042000 # H HOH
387 129 2 0.000000 6.961000 10.157000 5.631000 # O HOH
388 130 1 0.000000 27.586000 10.235000 14.595000 # H HOH
389 130 1 0.000000 27.243000 11.704000 15.219000 # H HOH
390 130 2 0.000000 27.955999 11.014000 15.102000 # O HOH
391 131 1 0.000000 31.212000 19.843000 34.868000 # H HOH
392 131 1 0.000000 32.164001 21.038000 34.291000 # H HOH
393 131 2 0.000000 32.066002 20.346001 35.006001 # O HOH
394 132 1 0.000000 17.454000 10.535000 12.731000 # H HOH
395 132 1 0.000000 17.552000 11.571000 13.989000 # H HOH
396 132 2 0.000000 17.775000 11.435000 13.024000 # O HOH
397 133 1 0.000000 6.039000 17.743999 34.910999 # H HOH
398 133 1 0.000000 5.000000 16.488001 35.000000 # H HOH
399 133 2 0.000000 5.075000 17.480000 34.909000 # O HOH
400 134 1 0.000000 19.226000 17.215000 6.800000 # H HOH
401 134 1 0.000000 19.856001 18.721001 6.747000 # H HOH
402 134 2 0.000000 20.073000 17.745001 6.751000 # O HOH
403 135 1 0.000000 18.975000 46.882000 24.215000 # H HOH
404 135 1 0.000000 19.478001 48.398998 24.551001 # H HOH
405 135 2 0.000000 19.771000 47.484001 24.274000 # O HOH
406 136 1 0.000000 14.443000 41.334999 29.775000 # H HOH
407 136 1 0.000000 15.607000 40.293999 29.298000 # H HOH
408 136 2 0.000000 14.660000 40.578999 29.157000 # O HOH
409 137 1 0.000000 41.341000 37.161999 6.198000 # H HOH
410 137 1 0.000000 40.994999 36.007000 5.097000 # H HOH
411 137 2 0.000000 40.952999 36.986000 5.293000 # O HOH
412 138 1 0.000000 5.019000 25.150999 6.472000 # H HOH
413 138 1 0.000000 6.499000 24.493999 6.682000 # H HOH
414 138 2 0.000000 5.860000 24.867001 6.010000 # O HOH
415 139 1 0.000000 13.757000 41.851002 27.027000 # H HOH
416 139 1 0.000000 14.170000 40.278000 26.875999 # H HOH
417 139 2 0.000000 13.589000 40.925999 27.368000 # O HOH
418 140 1 0.000000 21.471001 9.284000 30.315001 # H HOH
419 140 1 0.000000 21.855000 8.287000 29.080000 # H HOH
420 140 2 0.000000 21.143999 8.535000 29.738001 # O HOH
421 141 1 0.000000 10.847000 15.026000 24.599001 # H HOH
422 141 1 0.000000 10.573000 14.641000 26.163000 # H HOH
423 141 2 0.000000 10.916000 15.347000 25.544001 # O HOH
424 142 1 0.000000 16.886000 12.708000 35.000000 # H HOH
425 142 1 0.000000 18.341000 13.150000 34.405998 # H HOH
426 142 2 0.000000 17.355000 13.305000 34.349998 # O HOH
427 143 1 0.000000 39.806999 43.785999 32.841999 # H HOH
428 143 1 0.000000 38.997002 45.188999 33.042999 # H HOH
429 143 2 0.000000 38.903000 44.198002 32.953999 # O HOH
430 144 1 0.000000 5.076000 25.900999 25.787001 # H HOH
431 144 1 0.000000 5.189000 27.201000 26.768999 # H HOH
432 144 2 0.000000 5.000000 26.896999 25.836000 # O HOH
433 145 1 0.000000 11.032000 15.389000 17.157000 # H HOH
434 145 1 0.000000 12.617000 15.598000 16.825001 # H HOH
435 145 2 0.000000 11.732000 16.056000 16.900999 # O HOH
436 146 1 0.000000 22.538000 41.765999 25.042000 # H HOH
437 146 1 0.000000 21.016001 41.563000 24.486000 # H HOH
438 146 2 0.000000 21.966000 41.721001 24.222000 # O HOH
439 147 1 0.000000 19.399000 49.828999 35.000000 # H HOH
440 147 1 0.000000 17.872999 50.411999 35.000000 # H HOH
441 147 2 0.000000 18.429001 49.582001 35.000000 # O HOH
442 148 1 0.000000 27.111000 43.525002 10.814000 # H HOH
443 148 1 0.000000 25.802999 44.250999 11.469000 # H HOH
444 148 2 0.000000 26.563999 43.627998 11.645000 # O HOH
445 149 1 0.000000 49.979000 37.834000 13.688000 # H HOH
446 149 1 0.000000 48.605000 37.929001 12.810000 # H HOH
447 149 2 0.000000 49.324001 38.458000 13.261000 # O HOH
448 150 1 0.000000 13.661000 34.868000 31.773001 # H HOH
449 150 1 0.000000 15.040000 35.105999 32.615002 # H HOH
450 150 2 0.000000 14.567000 34.497002 31.979000 # O HOH
451 151 1 0.000000 50.000000 21.395000 26.176001 # H HOH
452 151 1 0.000000 49.992001 22.997000 25.861000 # H HOH
453 151 2 0.000000 49.994999 22.308001 26.584000 # O HOH
454 152 1 0.000000 39.585999 38.964001 5.014000 # H HOH
455 152 1 0.000000 38.036999 38.445999 5.000000 # H HOH
456 152 2 0.000000 38.627998 39.251999 5.027000 # O HOH
457 153 1 0.000000 43.480999 44.011002 30.511000 # H HOH
458 153 1 0.000000 42.185001 43.393002 31.288000 # H HOH
459 153 2 0.000000 43.159000 43.270000 31.101000 # O HOH
460 154 1 0.000000 13.131000 47.320000 19.145000 # H HOH
461 154 1 0.000000 13.464000 48.055000 17.726000 # H HOH
462 154 2 0.000000 13.532000 47.199001 18.237000 # O HOH
463 155 1 0.000000 23.063000 33.426998 18.285000 # H HOH
464 155 1 0.000000 21.805000 32.563000 18.867001 # H HOH
465 155 2 0.000000 22.239000 32.917000 18.039000 # O HOH
466 156 1 0.000000 31.403999 34.230999 19.555000 # H HOH
467 156 1 0.000000 31.931999 34.957001 18.191000 # H HOH
468 156 2 0.000000 31.771000 34.077000 18.636999 # O HOH
469 157 1 0.000000 26.701000 11.214000 20.448999 # H HOH
470 157 1 0.000000 25.851999 12.512000 20.958000 # H HOH
471 157 2 0.000000 25.784000 11.579000 20.606001 # O HOH
472 158 1 0.000000 13.482000 40.188000 7.363000 # H HOH
473 158 1 0.000000 12.826000 38.694000 7.283000 # H HOH
474 158 2 0.000000 13.478000 39.323002 6.860000 # O HOH
475 159 1 0.000000 17.481001 6.552000 34.066002 # H HOH
476 159 1 0.000000 16.336000 7.268000 34.984001 # H HOH
477 159 2 0.000000 17.153000 6.692000 35.000000 # O HOH
478 160 1 0.000000 48.452999 48.346001 29.091000 # H HOH
479 160 1 0.000000 49.855000 47.611000 28.691999 # H HOH
480 160 2 0.000000 48.910000 47.463001 28.981001 # O HOH
481 161 1 0.000000 47.306000 20.884001 19.399000 # H HOH
482 161 1 0.000000 47.521999 19.275000 19.221001 # H HOH
483 161 2 0.000000 47.036999 20.077000 18.872999 # O HOH
484 162 1 0.000000 5.000000 23.231001 26.454000 # H HOH
485 162 1 0.000000 5.001000 21.662001 26.905001 # H HOH
486 162 2 0.000000 5.271000 22.587000 27.169001 # O HOH
487 163 1 0.000000 30.584999 13.636000 35.000000 # H HOH
488 163 1 0.000000 29.282000 14.621000 35.000000 # H HOH
489 163 2 0.000000 29.974001 14.182000 34.426998 # O HOH
490 164 1 0.000000 45.438999 10.156000 7.276000 # H HOH
491 164 1 0.000000 46.964001 10.112000 6.695000 # H HOH
492 164 2 0.000000 46.407001 10.114000 7.524000 # O HOH
493 165 1 0.000000 48.639000 26.098000 21.681999 # H HOH
494 165 1 0.000000 49.972000 26.730000 22.382999 # H HOH
495 165 2 0.000000 49.095001 26.281000 22.552999 # O HOH
496 166 1 0.000000 5.000000 15.128000 32.924999 # H HOH
497 166 1 0.000000 5.000000 16.759001 33.018002 # H HOH
498 166 2 0.000000 5.547000 15.934000 33.154999 # O HOH
499 167 1 0.000000 32.056000 24.737000 6.636000 # H HOH
500 167 1 0.000000 31.936001 25.761999 5.370000 # H HOH
501 167 2 0.000000 31.502001 24.997000 5.844000 # O HOH
502 168 1 0.000000 26.784000 33.203999 23.013000 # H HOH
503 168 1 0.000000 27.264999 33.785000 24.462000 # H HOH
504 168 2 0.000000 27.537001 33.237000 23.671000 # O HOH
505 169 1 0.000000 18.039000 33.668999 25.407000 # H HOH
506 169 1 0.000000 18.865000 32.264000 25.502001 # H HOH
507 169 2 0.000000 17.955000 32.676998 25.500999 # O HOH
508 170 1 0.000000 43.983002 20.910000 12.171000 # H HOH
509 170 1 0.000000 45.348000 20.674999 13.037000 # H HOH
510 170 2 0.000000 44.470001 21.152000 13.011000 # O HOH
511 171 1 0.000000 49.011002 17.854000 35.000000 # H HOH
512 171 1 0.000000 49.988998 16.546000 35.000999 # H HOH
513 171 2 0.000000 49.037998 16.854000 34.984001 # O HOH
514 172 1 0.000000 32.844002 35.270000 35.000000 # H HOH
515 172 1 0.000000 31.211000 35.237999 35.000000 # H HOH
516 172 2 0.000000 32.015999 35.831001 35.000000 # O HOH
517 173 1 0.000000 21.281000 47.501999 26.009001 # H HOH
518 173 1 0.000000 20.316999 48.782001 26.325001 # H HOH
519 173 2 0.000000 20.350000 47.785999 26.243000 # O HOH
520 174 1 0.000000 39.351002 20.587999 26.268999 # H HOH
521 174 1 0.000000 38.377998 20.471001 24.962999 # H HOH