LAMMPS data file. CGCMM style. atom_style full generated by VMD/TopoTools v1.5 on Mon Aug 02 14:52:09 +0430 2021
 40644 atoms
 25096 bonds
 12548 angles
 3 atom types
 1 bond types
 1 angle types
 -1.228024 60.166248  xlo xhi
  0.000000 63.801998  ylo yhi
 -20.000000 120.000000  zlo zhi


 Masses

 1 1.008000 # H
 2 15.999000 # O
 3 12.0107  # C

 Atoms

1 1 1 0.000000 47.686001 29.542000 63.304001 # H HOH
2 1 1 0.000000 48.111000 31.091999 63.015999 # H HOH
3 1 2 0.000000 47.493999 30.497000 63.529999 # O HOH
4 2 1 0.000000 47.148998 5.161000 47.187000 # H HOH
5 2 1 0.000000 46.832001 5.689000 48.699001 # H HOH
6 2 2 0.000000 46.622002 4.988000 48.019001 # O HOH
7 3 1 0.000000 11.495000 55.562000 47.926998 # H HOH
8 3 1 0.000000 12.991000 55.132000 47.431999 # H HOH
9 3 2 0.000000 12.013000 54.995998 47.284000 # O HOH
10 4 1 0.000000 45.215000 14.361000 6.386000 # H HOH
11 4 1 0.000000 44.362000 14.492000 4.999000 # H HOH
12 4 2 0.000000 44.476002 14.853000 5.924000 # O HOH
13 5 1 0.000000 45.175999 34.769001 85.624001 # H HOH
14 5 1 0.000000 45.516998 35.148998 84.072998 # H HOH
15 5 2 0.000000 44.810001 34.813999 84.695000 # O HOH
16 6 1 0.000000 13.180000 20.768000 95.000999 # H HOH
17 6 1 0.000000 12.407000 19.330000 95.008003 # H HOH
18 6 2 0.000000 12.285000 20.322001 95.012001 # O HOH
19 7 1 0.000000 22.306000 10.589000 83.157997 # H HOH
20 7 1 0.000000 22.903000 9.220000 82.499001 # H HOH
21 7 2 0.000000 22.167000 9.893000 82.453003 # O HOH
22 8 1 0.000000 27.099001 39.682999 86.964996 # H HOH
23 8 1 0.000000 28.436001 39.629002 87.901001 # H HOH
24 8 2 0.000000 28.084000 39.854000 86.992996 # O HOH
25 9 1 0.000000 18.472000 35.708000 42.775002 # H HOH
26 9 1 0.000000 17.506001 34.610001 43.504002 # H HOH
27 9 2 0.000000 17.733999 35.046001 42.633999 # O HOH
28 10 1 0.000000 49.372002 32.091999 26.313000 # H HOH
29 10 1 0.000000 48.262001 32.639999 25.249001 # H HOH
30 10 2 0.000000 48.394001 32.195999 26.135000 # O HOH
31 11 1 0.000000 49.507999 31.927000 20.697001 # H HOH
32 11 1 0.000000 49.581001 30.295000 20.684000 # H HOH
33 11 2 0.000000 49.792000 31.118000 21.212000 # O HOH
34 12 1 0.000000 32.574001 41.493000 64.814003 # H HOH
35 12 1 0.000000 31.459999 42.563000 64.281998 # H HOH
36 12 2 0.000000 31.761999 41.610001 64.241997 # O HOH
37 13 1 0.000000 30.608000 18.760000 34.966000 # H HOH
38 13 1 0.000000 31.542000 18.990000 33.646000 # H HOH
39 13 2 0.000000 30.773001 19.349001 34.174000 # O HOH
40 14 1 0.000000 4.991000 12.604000 75.640999 # H HOH
41 14 1 0.000000 4.997000 13.867000 76.677002 # H HOH
42 14 2 0.000000 5.334000 12.939000 76.518997 # O HOH
43 15 1 0.000000 14.044000 46.812000 54.188999 # H HOH
44 15 1 0.000000 12.898000 47.542999 53.283001 # H HOH
45 15 2 0.000000 13.118000 46.730000 53.820999 # O HOH
46 16 1 0.000000 35.305000 15.200000 93.123001 # H HOH
47 16 1 0.000000 36.176998 13.820000 93.097000 # H HOH
48 16 2 0.000000 36.228001 14.818000 93.086998 # O HOH
49 17 1 0.000000 25.575001 7.654000 93.671997 # H HOH
50 17 1 0.000000 25.441000 9.075000 92.877998 # H HOH
51 17 2 0.000000 24.934999 8.348000 93.341003 # O HOH
52 18 1 0.000000 30.756001 10.008000 71.696999 # H HOH
53 18 1 0.000000 32.162998 9.240000 71.386002 # H HOH
54 18 2 0.000000 31.167000 9.162000 71.357002 # O HOH
55 19 1 0.000000 4.996000 21.362000 90.947998 # H HOH
56 19 1 0.000000 6.264000 22.362000 90.702003 # H HOH
57 19 2 0.000000 5.975000 21.493999 91.105003 # O HOH
58 20 1 0.000000 47.265999 32.386002 91.929001 # H HOH
59 20 1 0.000000 48.604000 32.076000 91.045998 # H HOH
60 20 2 0.000000 48.153000 32.743999 91.636002 # O HOH
61 21 1 0.000000 27.653999 25.106001 36.444000 # H HOH
62 21 1 0.000000 27.816999 26.731001 36.417999 # H HOH
63 21 2 0.000000 27.160999 25.976999 36.417999 # O HOH
64 22 1 0.000000 34.937000 38.964001 40.695999 # H HOH
65 22 1 0.000000 34.222000 37.495998 40.660999 # H HOH
66 22 2 0.000000 34.971001 38.029999 41.053001 # O HOH
67 23 1 0.000000 19.782000 19.974001 5.614000 # H HOH
68 23 1 0.000000 20.686001 21.181999 4.989000 # H HOH
69 23 2 0.000000 19.778000 20.764000 5.001000 # O HOH
70 24 1 0.000000 49.221001 27.820000 64.290001 # H HOH
71 24 1 0.000000 50.386002 27.617001 65.417000 # H HOH
72 24 2 0.000000 49.549999 28.114000 65.188004 # O HOH
73 25 1 0.000000 43.105000 14.655000 38.085999 # H HOH
74 25 1 0.000000 42.826000 13.197000 37.405998 # H HOH
75 25 2 0.000000 43.095001 13.668000 38.244999 # O HOH
76 26 1 0.000000 34.960999 19.562000 53.715000 # H HOH
77 26 1 0.000000 36.567001 19.618000 54.007000 # H HOH
78 26 2 0.000000 35.799000 19.020000 53.780998 # O HOH
79 27 1 0.000000 11.239000 47.181000 6.120000 # H HOH
80 27 1 0.000000 12.045000 45.907001 5.493000 # H HOH
81 27 2 0.000000 11.522000 46.730000 5.273000 # O HOH
82 28 1 0.000000 8.171000 28.594000 25.764999 # H HOH
83 28 1 0.000000 8.399000 29.773001 24.658001 # H HOH
84 28 2 0.000000 7.764000 29.400000 25.333000 # O HOH
85 29 1 0.000000 51.424000 48.865002 15.779000 # H HOH
86 29 1 0.000000 53.000000 48.528000 16.042999 # H HOH
87 29 2 0.000000 52.132000 48.160999 15.711000 # O HOH
88 30 1 0.000000 26.768000 23.289000 4.992000 # H HOH
89 30 1 0.000000 27.076000 24.417999 6.131000 # H HOH
90 30 2 0.000000 27.224001 24.160000 5.177000 # O HOH
91 31 1 0.000000 48.946999 34.431999 68.211998 # H HOH
92 31 1 0.000000 50.355000 34.120998 68.977997 # H HOH
93 31 2 0.000000 49.361000 34.151001 69.078003 # O HOH
94 32 1 0.000000 20.048000 12.734000 12.938000 # H HOH
95 32 1 0.000000 18.631001 12.550000 12.147000 # H HOH
96 32 2 0.000000 19.198999 12.207000 12.894000 # O HOH
97 33 1 0.000000 47.876999 40.323002 90.529999 # H HOH
98 33 1 0.000000 49.160000 39.327999 90.710999 # H HOH
99 33 2 0.000000 48.441002 39.627998 90.084000 # O HOH
100 34 1 0.000000 47.723999 53.613998 45.301998 # H HOH
101 34 1 0.000000 47.240002 52.389000 46.266998 # H HOH
102 34 2 0.000000 47.284000 53.382999 46.169998 # O HOH
103 35 1 0.000000 44.402000 33.193001 63.828999 # H HOH
104 35 1 0.000000 43.492001 31.868000 64.117996 # H HOH
105 35 2 0.000000 43.564999 32.855000 64.259003 # O HOH
106 36 1 0.000000 10.577000 7.733000 45.324001 # H HOH
107 36 1 0.000000 11.150000 6.772000 46.513000 # H HOH
108 36 2 0.000000 11.366000 7.536000 45.905998 # O HOH
109 37 1 0.000000 4.997000 36.048000 43.855999 # H HOH
110 37 1 0.000000 5.978000 35.337002 44.951000 # H HOH
111 37 2 0.000000 5.272000 35.175999 44.263000 # O HOH
112 38 1 0.000000 26.518999 32.658001 64.679001 # H HOH
113 38 1 0.000000 25.120001 32.174000 65.369003 # H HOH
114 38 2 0.000000 25.888000 31.889999 64.796997 # O HOH
115 39 1 0.000000 15.188000 8.866000 88.737999 # H HOH
116 39 1 0.000000 14.039000 8.202000 89.689003 # H HOH
117 39 2 0.000000 14.644000 8.045000 88.908997 # O HOH
118 40 1 0.000000 16.112000 20.261999 46.924999 # H HOH
119 40 1 0.000000 14.663000 20.069000 47.653999 # H HOH
120 40 2 0.000000 15.131000 20.448000 46.856998 # O HOH
121 41 1 0.000000 39.416000 33.651001 71.266998 # H HOH
122 41 1 0.000000 38.042999 34.523998 71.408997 # H HOH
123 41 2 0.000000 39.032001 34.575001 71.274002 # O HOH
124 42 1 0.000000 23.938999 46.936001 38.424999 # H HOH
125 42 1 0.000000 24.881001 47.923000 37.527000 # H HOH
126 42 2 0.000000 24.740000 47.535000 38.438000 # O HOH
127 43 1 0.000000 7.503000 20.621000 30.243000 # H HOH
128 43 1 0.000000 6.025000 19.936001 30.362000 # H HOH
129 43 2 0.000000 6.972000 19.790001 30.077999 # O HOH
130 44 1 0.000000 42.313999 27.722000 78.880997 # H HOH
131 44 1 0.000000 42.766998 28.657000 77.622002 # H HOH
132 44 2 0.000000 42.912998 28.468000 78.592003 # O HOH
133 45 1 0.000000 41.601002 33.414001 29.216000 # H HOH
134 45 1 0.000000 40.826000 34.851002 29.233000 # H HOH
135 45 2 0.000000 40.706001 33.859001 29.242001 # O HOH
136 46 1 0.000000 42.202000 25.759001 7.149000 # H HOH
137 46 1 0.000000 41.346001 24.539000 7.817000 # H HOH
138 46 2 0.000000 41.325001 25.278999 7.145000 # O HOH
139 47 1 0.000000 24.016001 50.236000 45.863998 # H HOH
140 47 1 0.000000 24.594999 48.842999 46.488998 # H HOH
141 47 2 0.000000 24.299999 49.772999 46.703999 # O HOH
142 48 1 0.000000 42.904999 44.109001 95.001999 # H HOH
143 48 1 0.000000 41.376999 44.682999 95.001999 # H HOH
144 48 2 0.000000 41.938000 43.855999 95.001999 # O HOH
145 49 1 0.000000 49.034000 46.678001 74.266998 # H HOH
146 49 1 0.000000 50.155998 47.754002 74.767998 # H HOH
147 49 2 0.000000 50.001999 46.807999 74.486000 # O HOH
148 50 1 0.000000 50.431000 7.714000 50.803001 # H HOH
149 50 1 0.000000 48.808998 7.911000 50.801998 # H HOH
150 50 2 0.000000 49.549999 7.240000 50.805000 # O HOH
151 51 1 0.000000 52.376999 10.830000 70.059998 # H HOH
152 51 1 0.000000 53.004002 10.084000 68.750000 # H HOH
153 51 2 0.000000 52.882000 10.964000 69.207001 # O HOH
154 52 1 0.000000 28.809999 24.721001 20.351000 # H HOH
155 52 1 0.000000 30.256001 25.421000 20.056000 # H HOH
156 52 2 0.000000 29.761999 24.552999 20.093000 # O HOH
157 53 1 0.000000 23.969000 53.558998 23.735001 # H HOH
158 53 1 0.000000 23.165001 54.653999 24.639999 # H HOH
159 53 2 0.000000 23.986000 54.492001 24.094000 # O HOH
160 54 1 0.000000 29.084999 24.509001 81.716003 # H HOH
161 54 1 0.000000 29.051001 25.240000 83.175003 # H HOH
162 54 2 0.000000 29.632000 24.771000 82.511002 # O HOH
163 55 1 0.000000 48.355000 47.776001 36.590000 # H HOH
164 55 1 0.000000 48.653000 49.346001 36.929001 # H HOH
165 55 2 0.000000 47.945000 48.641998 36.879002 # O HOH
166 56 1 0.000000 35.890999 34.254002 12.693000 # H HOH
167 56 1 0.000000 36.866001 35.078999 13.710000 # H HOH
168 56 2 0.000000 36.117001 35.159000 13.054000 # O HOH
169 57 1 0.000000 45.514999 25.903999 14.126000 # H HOH
170 57 1 0.000000 45.686001 27.527000 14.183000 # H HOH
171 57 2 0.000000 45.376999 26.721001 14.687000 # O HOH
172 58 1 0.000000 41.851002 48.339001 48.227001 # H HOH
173 58 1 0.000000 41.320000 49.250999 49.473000 # H HOH
174 58 2 0.000000 41.604000 48.334000 49.195999 # O HOH
175 59 1 0.000000 12.741000 15.693000 72.911003 # H HOH
176 59 1 0.000000 13.301000 15.966000 71.402000 # H HOH
177 59 2 0.000000 13.440000 16.163000 72.372002 # O HOH
178 60 1 0.000000 33.655998 52.301998 66.382004 # H HOH
179 60 1 0.000000 35.201000 52.035999 65.921997 # H HOH
180 60 2 0.000000 34.352001 52.512001 65.695000 # O HOH
181 61 1 0.000000 10.050000 9.922000 12.670000 # H HOH
182 61 1 0.000000 10.732000 9.205000 11.371000 # H HOH
183 61 2 0.000000 9.881000 9.566000 11.751000 # O HOH
184 62 1 0.000000 32.064999 13.065000 93.625000 # H HOH
185 62 1 0.000000 32.827000 12.629000 95.001999 # H HOH
186 62 2 0.000000 32.113998 12.376000 94.348999 # O HOH
187 63 1 0.000000 48.669998 55.227001 55.023998 # H HOH
188 63 1 0.000000 47.556000 56.306999 54.514999 # H HOH
189 63 2 0.000000 47.696999 55.459000 55.023998 # O HOH
190 64 1 0.000000 16.487000 32.640999 74.273003 # H HOH
191 64 1 0.000000 16.375000 34.103001 74.990997 # H HOH
192 64 2 0.000000 16.999001 33.365002 74.737000 # O HOH
193 65 1 0.000000 43.490002 26.281000 34.562000 # H HOH
194 65 1 0.000000 43.591000 24.844999 33.790001 # H HOH
195 65 2 0.000000 42.973000 25.576000 34.077000 # O HOH
196 66 1 0.000000 20.792000 5.992000 47.659000 # H HOH
197 66 1 0.000000 19.540001 6.828000 47.025002 # H HOH
198 66 2 0.000000 20.514000 6.861000 47.250000 # O HOH
199 67 1 0.000000 16.907000 17.698000 91.911003 # H HOH
200 67 1 0.000000 16.827000 19.323999 91.792999 # H HOH
201 67 2 0.000000 16.934000 18.473000 91.279999 # O HOH
202 68 1 0.000000 51.146999 35.159000 43.931000 # H HOH
203 68 1 0.000000 50.439999 34.056999 42.957001 # H HOH
204 68 2 0.000000 50.365002 34.979000 43.334000 # O HOH
205 69 1 0.000000 43.374001 10.290000 28.900000 # H HOH
206 69 1 0.000000 44.706001 10.867000 28.152000 # H HOH
207 69 2 0.000000 43.901001 11.114000 28.691000 # O HOH
208 70 1 0.000000 19.444000 48.544998 12.450000 # H HOH
209 70 1 0.000000 19.298000 47.009998 12.989000 # H HOH
210 70 2 0.000000 18.903000 47.928001 13.022000 # O HOH
211 71 1 0.000000 30.603001 25.878000 7.521000 # H HOH
212 71 1 0.000000 29.066000 25.330000 7.596000 # H HOH
213 71 2 0.000000 29.642000 26.146999 7.588000 # O HOH
214 72 1 0.000000 37.757000 46.137001 40.368000 # H HOH
215 72 1 0.000000 38.480000 47.185001 41.390999 # H HOH
216 72 2 0.000000 37.742001 46.518002 41.292999 # O HOH
217 73 1 0.000000 51.679001 43.924999 42.950001 # H HOH
218 73 1 0.000000 50.570999 45.098000 42.695999 # H HOH
219 73 2 0.000000 51.479000 44.763000 42.443001 # O HOH
220 74 1 0.000000 6.655000 21.740999 13.335000 # H HOH
221 74 1 0.000000 7.162000 20.443001 14.186000 # H HOH
222 74 2 0.000000 6.909000 20.775000 13.278000 # O HOH
223 75 1 0.000000 14.983000 46.111000 40.278000 # H HOH
224 75 1 0.000000 15.101000 47.667999 40.757000 # H HOH
225 75 2 0.000000 15.484000 46.967999 40.154999 # O HOH
226 76 1 0.000000 42.965000 5.021000 22.978001 # H HOH
227 76 1 0.000000 44.529999 4.998000 23.441999 # H HOH
228 76 2 0.000000 43.603001 5.251000 23.714001 # O HOH
229 77 1 0.000000 17.297001 49.183998 14.362000 # H HOH
230 77 1 0.000000 18.763000 49.848000 14.087000 # H HOH
231 77 2 0.000000 17.841999 49.723999 13.720000 # O HOH
232 78 1 0.000000 20.726999 30.645000 18.580999 # H HOH
233 78 1 0.000000 21.650000 29.523001 19.326000 # H HOH
234 78 2 0.000000 21.299000 30.457001 19.379000 # O HOH
235 79 1 0.000000 40.377998 11.818000 94.077003 # H HOH
236 79 1 0.000000 41.433998 12.652000 95.001999 # H HOH
237 79 2 0.000000 40.549000 12.688000 94.540001 # O HOH
238 80 1 0.000000 28.312000 9.489000 64.929001 # H HOH
239 80 1 0.000000 29.464001 10.353000 64.158997 # H HOH
240 80 2 0.000000 29.066999 10.134000 65.050003 # O HOH
241 81 1 0.000000 29.341000 5.000000 28.711000 # H HOH
242 81 1 0.000000 27.740999 5.000000 28.382999 # H HOH
243 81 2 0.000000 28.514999 5.562000 28.674000 # O HOH
244 82 1 0.000000 15.737000 7.837000 72.526001 # H HOH
245 82 1 0.000000 16.881001 7.623000 71.380997 # H HOH
246 82 2 0.000000 16.332001 8.300000 71.869003 # O HOH
247 83 1 0.000000 38.414001 4.994000 36.290001 # H HOH
248 83 1 0.000000 38.674999 5.948000 34.992001 # H HOH
249 83 2 0.000000 38.162998 5.163000 35.337002 # O HOH
250 84 1 0.000000 11.037000 31.083000 94.102997 # H HOH
251 84 1 0.000000 12.145000 30.288000 95.000999 # H HOH
252 84 2 0.000000 11.242000 30.226999 94.579002 # O HOH
253 85 1 0.000000 46.615002 50.791000 81.974998 # H HOH
254 85 1 0.000000 45.759998 52.148998 82.276001 # H HOH
255 85 2 0.000000 46.506001 51.567001 82.596001 # O HOH
256 86 1 0.000000 32.005001 49.037998 35.389999 # H HOH
257 86 1 0.000000 31.851000 49.568001 36.926998 # H HOH
258 86 2 0.000000 31.354000 49.262001 36.116001 # O HOH
259 87 1 0.000000 16.086000 18.059999 62.376999 # H HOH
260 87 1 0.000000 14.526000 18.420000 62.056000 # H HOH
261 87 2 0.000000 15.421000 18.802000 62.283001 # O HOH
262 88 1 0.000000 46.972000 33.035999 76.950996 # H HOH
263 88 1 0.000000 45.811001 34.181000 77.040001 # H HOH
264 88 2 0.000000 45.990002 33.212002 76.874001 # O HOH
265 89 1 0.000000 14.875000 9.098000 67.974998 # H HOH
266 89 1 0.000000 14.942000 10.729000 67.915001 # H HOH
267 89 2 0.000000 14.333000 9.938000 67.974998 # O HOH
268 90 1 0.000000 28.371000 26.650999 81.632004 # H HOH
269 90 1 0.000000 27.726000 25.989000 80.286003 # H HOH
270 90 2 0.000000 28.554001 26.379000 80.686996 # O HOH
271 91 1 0.000000 17.434999 20.732000 7.881000 # H HOH
272 91 1 0.000000 17.535000 21.618999 9.249000 # H HOH
273 91 2 0.000000 18.035000 21.011999 8.632000 # O HOH
274 92 1 0.000000 48.923000 39.004002 49.152000 # H HOH
275 92 1 0.000000 48.730000 39.097000 50.771000 # H HOH
276 92 2 0.000000 49.362999 39.257000 50.014000 # O HOH
277 93 1 0.000000 7.152000 52.145000 55.653000 # H HOH
278 93 1 0.000000 7.854000 53.209000 56.674000 # H HOH
279 93 2 0.000000 7.825000 52.252998 56.384998 # O HOH
280 94 1 0.000000 50.220001 35.734001 86.213997 # H HOH
281 94 1 0.000000 49.522999 36.250000 87.598000 # H HOH
282 94 2 0.000000 49.437000 36.220001 86.601997 # O HOH
283 95 1 0.000000 43.083000 23.003000 90.766998 # H HOH
284 95 1 0.000000 44.570000 23.378000 91.328003 # H HOH
285 95 2 0.000000 43.889000 22.650999 91.241997 # O HOH
286 96 1 0.000000 40.687000 48.139999 70.181999 # H HOH
287 96 1 0.000000 39.519001 47.881001 71.292999 # H HOH
288 96 2 0.000000 40.500999 47.998001 71.153999 # O HOH
289 97 1 0.000000 17.323000 16.152000 55.952999 # H HOH
290 97 1 0.000000 17.176001 17.775999 55.868000 # H HOH
291 97 2 0.000000 17.750999 17.024000 56.188000 # O HOH
292 98 1 0.000000 46.476002 21.910000 14.526000 # H HOH
293 98 1 0.000000 46.712002 23.292999 15.362000 # H HOH
294 98 2 0.000000 46.033001 22.726999 14.896000 # O HOH
295 99 1 0.000000 16.322001 34.582001 11.910000 # H HOH
296 99 1 0.000000 14.699000 34.606998 11.731000 # H HOH
297 99 2 0.000000 15.446000 34.541000 12.391000 # O HOH
298 100 1 0.000000 22.438999 15.842000 62.650002 # H HOH
299 100 1 0.000000 23.929001 16.493000 62.505001 # H HOH
300 100 2 0.000000 22.954000 16.697001 62.580002 # O HOH
301 101 1 0.000000 21.957001 6.538000 25.177999 # H HOH
302 101 1 0.000000 23.450001 6.829000 24.584000 # H HOH
303 101 2 0.000000 22.936001 6.405000 25.329000 # O HOH
304 102 1 0.000000 34.887001 31.469999 11.817000 # H HOH
305 102 1 0.000000 33.917999 32.782001 11.740000 # H HOH
306 102 2 0.000000 34.757999 32.410000 12.133000 # O HOH
307 103 1 0.000000 11.337000 44.463001 54.448002 # H HOH
308 103 1 0.000000 11.746000 45.194000 53.046001 # H HOH
309 103 2 0.000000 11.378000 45.337002 53.964001 # O HOH
310 104 1 0.000000 29.664000 27.937000 36.729000 # H HOH
311 104 1 0.000000 29.079000 29.415001 36.355000 # H HOH
312 104 2 0.000000 29.129999 28.459999 36.064999 # O HOH
313 105 1 0.000000 36.779999 21.507000 55.113998 # H HOH
314 105 1 0.000000 36.564999 21.356001 56.724998 # H HOH
315 105 2 0.000000 37.237999 21.337999 55.987000 # O HOH
316 106 1 0.000000 39.453999 6.098000 20.315001 # H HOH
317 106 1 0.000000 39.820000 4.999000 21.466000 # H HOH
318 106 2 0.000000 39.783001 5.168000 20.481001 # O HOH
319 107 1 0.000000 14.283000 13.042000 94.905998 # H HOH
320 107 1 0.000000 14.293000 14.664000 94.719002 # H HOH
321 107 2 0.000000 14.828000 13.874000 95.014999 # O HOH
322 108 1 0.000000 26.355000 29.358999 60.974998 # H HOH
323 108 1 0.000000 27.785000 30.128000 61.146999 # H HOH
324 108 2 0.000000 27.341999 29.235001 61.082001 # O HOH
325 109 1 0.000000 34.257000 54.854000 69.737999 # H HOH
326 109 1 0.000000 32.910000 55.618000 69.218002 # H HOH
327 109 2 0.000000 33.314999 55.098999 69.970001 # O HOH
328 110 1 0.000000 28.681000 4.998000 71.650002 # H HOH
329 110 1 0.000000 27.049999 4.993000 71.722000 # H HOH
330 110 2 0.000000 27.891001 4.995000 72.262001 # O HOH
331 111 1 0.000000 28.191000 33.617001 9.871000 # H HOH
332 111 1 0.000000 29.113001 34.951000 10.068000 # H HOH
333 111 2 0.000000 28.177000 34.611000 9.981000 # O HOH
334 112 1 0.000000 4.996000 39.261002 67.335999 # H HOH
335 112 1 0.000000 5.008000 38.754002 68.889000 # H HOH
336 112 2 0.000000 5.438000 39.368000 68.226997 # O HOH
337 113 1 0.000000 32.276001 11.293000 9.374000 # H HOH
338 113 1 0.000000 30.929001 10.370000 9.373000 # H HOH
339 113 2 0.000000 31.924000 10.363000 9.474000 # O HOH
340 114 1 0.000000 38.549999 18.131001 73.517998 # H HOH
341 114 1 0.000000 37.776001 19.504999 73.092003 # H HOH
342 114 2 0.000000 38.168999 18.993000 73.855003 # O HOH
343 115 1 0.000000 46.198002 7.313000 76.940002 # H HOH
344 115 1 0.000000 45.903999 8.865000 77.351997 # H HOH
345 115 2 0.000000 45.799000 8.178000 76.635002 # O HOH
346 116 1 0.000000 42.292000 39.146999 57.886002 # H HOH
347 116 1 0.000000 40.757999 39.708000 57.888000 # H HOH
348 116 2 0.000000 41.326000 38.886002 57.887001 # O HOH
349 117 1 0.000000 11.166000 35.759998 87.699997 # H HOH
350 117 1 0.000000 9.923000 34.702000 87.699997 # H HOH
351 117 2 0.000000 10.170000 35.669998 87.719002 # O HOH
352 118 1 0.000000 29.514000 30.546000 95.001999 # H HOH
353 118 1 0.000000 30.972000 30.333000 94.299004 # H HOH
354 118 2 0.000000 30.281000 31.007000 94.556999 # O HOH
355 119 1 0.000000 48.202999 17.629999 94.072998 # H HOH
356 119 1 0.000000 48.125000 18.638000 92.791000 # H HOH
357 119 2 0.000000 48.645000 17.898001 93.217003 # O HOH
358 120 1 0.000000 6.796000 38.536999 9.652000 # H HOH
359 120 1 0.000000 6.377000 37.053001 10.189000 # H HOH
360 120 2 0.000000 7.132000 37.699001 10.083000 # O HOH
361 121 1 0.000000 47.000999 29.351999 94.512001 # H HOH
362 121 1 0.000000 45.449001 29.239000 95.005997 # H HOH
363 121 2 0.000000 46.339001 28.784000 95.000999 # O HOH
364 122 1 0.000000 31.836000 50.916000 23.624001 # H HOH
365 122 1 0.000000 33.299999 50.285999 23.266001 # H HOH
366 122 2 0.000000 32.368999 50.071999 23.562000 # O HOH
367 123 1 0.000000 33.111000 19.072001 21.747000 # H HOH
368 123 1 0.000000 34.257999 20.198999 22.030001 # H HOH
369 123 2 0.000000 33.756001 19.707001 21.320999 # O HOH
370 124 1 0.000000 16.221001 52.636002 22.862000 # H HOH
371 124 1 0.000000 16.750000 51.244999 22.188999 # H HOH
372 124 2 0.000000 15.943000 51.799999 22.388000 # O HOH
373 125 1 0.000000 25.707001 48.289001 70.459000 # H HOH
374 125 1 0.000000 26.958000 48.803001 71.375000 # H HOH
375 125 2 0.000000 26.518999 48.873001 70.480003 # O HOH
376 126 1 0.000000 34.014999 23.528000 79.132004 # H HOH
377 126 1 0.000000 34.069000 24.830999 80.113998 # H HOH
378 126 2 0.000000 34.611000 24.219999 79.537003 # O HOH
379 127 1 0.000000 43.624001 18.843000 75.584000 # H HOH
380 127 1 0.000000 42.459999 17.697001 75.588997 # H HOH
381 127 2 0.000000 43.438999 17.867001 75.699997 # O HOH
382 128 1 0.000000 5.305000 9.162000 37.799000 # H HOH
383 128 1 0.000000 5.750000 7.693000 38.355000 # H HOH
384 128 2 0.000000 4.999000 8.349000 38.293999 # O HOH
385 129 1 0.000000 39.202000 57.001999 32.745998 # H HOH
386 129 1 0.000000 40.543999 57.002998 33.675999 # H HOH
387 129 2 0.000000 40.150002 56.691002 32.813000 # O HOH
388 130 1 0.000000 53.000999 27.108000 20.730000 # H HOH
389 130 1 0.000000 53.001999 25.488001 20.931999 # H HOH
390 130 2 0.000000 52.430000 26.306999 20.909000 # O HOH
391 131 1 0.000000 33.959999 45.818001 48.063999 # H HOH
392 131 1 0.000000 34.422001 45.763000 49.629002 # H HOH
393 131 2 0.000000 33.639000 45.750000 49.007999 # O HOH
394 132 1 0.000000 42.110001 53.193001 92.550003 # H HOH
395 132 1 0.000000 43.712002 52.979000 92.778000 # H HOH
396 132 2 0.000000 43.020000 53.386002 92.182999 # O HOH
397 133 1 0.000000 40.181000 14.378000 77.860001 # H HOH
398 133 1 0.000000 39.898998 15.955000 78.177002 # H HOH
399 133 2 0.000000 40.519001 15.310000 77.732002 # O HOH
400 134 1 0.000000 24.086000 25.752001 55.062000 # H HOH
401 134 1 0.000000 25.667999 25.368999 55.189999 # H HOH
402 134 2 0.000000 24.973000 25.778999 54.601002 # O HOH
403 135 1 0.000000 10.451000 38.382999 59.015999 # H HOH
404 135 1 0.000000 11.064000 37.814999 60.417999 # H HOH
405 135 2 0.000000 10.282000 37.782001 59.797001 # O HOH
406 136 1 0.000000 34.521000 11.259000 87.168999 # H HOH
407 136 1 0.000000 35.990002 10.679000 87.584999 # H HOH
408 136 2 0.000000 35.071999 10.892000 87.918999 # O HOH
409 137 1 0.000000 21.909000 28.444000 7.731000 # H HOH
410 137 1 0.000000 21.091000 27.450001 6.727000 # H HOH
411 137 2 0.000000 21.607000 27.503000 7.581000 # O HOH
412 138 1 0.000000 47.644001 20.496000 38.776001 # H HOH
413 138 1 0.000000 48.706001 21.674000 39.165001 # H HOH
414 138 2 0.000000 48.055000 21.009001 39.529999 # O HOH
415 139 1 0.000000 15.941000 18.152000 53.181999 # H HOH
416 139 1 0.000000 15.242000 19.625000 53.104000 # H HOH
417 139 2 0.000000 16.113001 19.136000 53.132999 # O HOH
418 140 1 0.000000 42.845001 8.711000 6.877000 # H HOH
419 140 1 0.000000 43.898998 8.367000 8.076000 # H HOH
420 140 2 0.000000 43.660000 8.185000 7.123000 # O HOH
421 141 1 0.000000 13.338000 55.965000 93.060997 # H HOH
422 141 1 0.000000 13.720000 57.012001 91.867996 # H HOH
423 141 2 0.000000 13.340000 56.926998 92.788002 # O HOH
424 142 1 0.000000 21.174000 12.152000 6.633000 # H HOH
425 142 1 0.000000 21.087999 10.578000 7.061000 # H HOH
426 142 2 0.000000 21.565001 11.243000 6.486000 # O HOH
427 143 1 0.000000 51.641998 11.119000 43.466999 # H HOH
428 143 1 0.000000 53.004002 10.220000 43.520000 # H HOH
429 143 2 0.000000 52.638000 11.141000 43.387001 # O HOH
430 144 1 0.000000 33.689999 52.775002 55.252998 # H HOH
431 144 1 0.000000 34.591000 53.688000 54.243000 # H HOH
432 144 2 0.000000 34.268002 52.763000 54.437000 # O HOH
433 145 1 0.000000 36.942001 41.395000 40.747002 # H HOH
434 145 1 0.000000 36.949001 39.799999 40.395000 # H HOH
435 145 2 0.000000 36.476002 40.522999 40.896999 # O HOH
436 146 1 0.000000 53.000999 24.889000 13.167000 # H HOH
437 146 1 0.000000 51.894001 26.089001 13.207000 # H HOH
438 146 2 0.000000 52.866001 25.878000 13.107000 # O HOH
439 147 1 0.000000 26.247000 31.729000 49.272999 # H HOH
440 147 1 0.000000 26.462999 30.231001 49.886002 # H HOH
441 147 2 0.000000 26.903000 31.111000 49.707001 # O HOH
442 148 1 0.000000 14.031000 40.780998 63.706001 # H HOH
443 148 1 0.000000 14.766000 42.106998 64.313004 # H HOH
444 148 2 0.000000 14.889000 41.294998 63.743999 # O HOH
445 149 1 0.000000 20.535999 23.554001 82.906998 # H HOH
446 149 1 0.000000 21.912001 23.455000 82.032997 # H HOH
447 149 2 0.000000 21.448999 23.148001 82.863998 # O HOH
448 150 1 0.000000 48.575001 41.807999 17.698000 # H HOH
449 150 1 0.000000 48.942001 40.501999 16.789000 # H HOH
450 150 2 0.000000 49.269001 41.112999 17.507999 # O HOH
451 151 1 0.000000 19.042000 19.354000 25.721001 # H HOH
452 151 1 0.000000 19.539000 20.898001 25.533001 # H HOH
453 151 2 0.000000 19.841000 19.952999 25.650999 # O HOH
454 152 1 0.000000 25.275999 57.000000 22.663000 # H HOH
455 152 1 0.000000 26.724001 57.000000 23.417999 # H HOH
456 152 2 0.000000 25.937000 56.438999 23.160999 # O HOH
457 153 1 0.000000 17.684000 16.607000 86.735001 # H HOH
458 153 1 0.000000 18.945999 15.585000 86.904999 # H HOH
459 153 2 0.000000 18.596001 16.493999 87.128998 # O HOH
460 154 1 0.000000 19.323999 10.680000 81.122002 # H HOH
461 154 1 0.000000 20.115999 9.252000 81.084999 # H HOH
462 154 2 0.000000 19.341999 9.745000 81.478996 # O HOH
463 155 1 0.000000 48.762001 27.573000 15.461000 # H HOH
464 155 1 0.000000 48.837002 29.202999 15.532000 # H HOH
465 155 2 0.000000 48.780998 28.365000 16.072001 # O HOH
466 156 1 0.000000 5.166000 31.993000 92.540001 # H HOH
467 156 1 0.000000 5.691000 31.201000 91.211998 # H HOH
468 156 2 0.000000 4.999000 31.215000 91.932999 # O HOH
469 157 1 0.000000 6.286000 15.642000 47.542999 # H HOH
470 157 1 0.000000 4.988000 16.354000 48.231998 # H HOH
471 157 2 0.000000 5.935000 16.070999 48.375999 # O HOH
472 158 1 0.000000 53.020000 45.490002 60.476002 # H HOH
473 158 1 0.000000 53.014999 47.109001 60.685001 # H HOH
474 158 2 0.000000 52.439999 46.299999 60.571999 # O HOH
475 159 1 0.000000 52.625000 55.794998 35.041000 # H HOH
476 159 1 0.000000 51.830002 54.811001 34.007999 # H HOH
477 159 2 0.000000 52.699001 55.269001 34.194000 # O HOH
478 160 1 0.000000 38.513000 15.268000 20.584000 # H HOH
479 160 1 0.000000 38.632999 13.850000 19.784000 # H HOH
480 160 2 0.000000 39.147999 14.585000 20.223000 # O HOH
481 161 1 0.000000 16.245001 33.396999 95.000999 # H HOH
482 161 1 0.000000 17.048000 34.377998 93.972000 # H HOH
483 161 2 0.000000 17.028999 34.008999 94.901001 # O HOH
484 162 1 0.000000 34.011002 9.220000 8.843000 # H HOH
485 162 1 0.000000 34.332001 10.819000 8.750000 # H HOH
486 162 2 0.000000 33.798000 10.070000 8.360000 # O HOH
487 163 1 0.000000 40.257999 17.737000 11.702000 # H HOH
488 163 1 0.000000 39.415001 16.930000 12.844000 # H HOH
489 163 2 0.000000 39.344002 17.462000 12.002000 # O HOH
490 164 1 0.000000 10.515000 51.696999 54.551998 # H HOH
491 164 1 0.000000 12.050000 51.175999 54.354000 # H HOH
492 164 2 0.000000 11.448000 51.751999 54.905998 # O HOH
493 165 1 0.000000 33.563999 37.702999 84.033997 # H HOH
494 165 1 0.000000 31.945999 37.705002 84.258003 # H HOH
495 165 2 0.000000 32.825001 37.445000 84.656998 # O HOH
496 166 1 0.000000 44.520000 24.759001 49.485001 # H HOH
497 166 1 0.000000 44.271000 26.128000 50.339001 # H HOH
498 166 2 0.000000 44.662998 25.747999 49.501999 # O HOH
499 167 1 0.000000 37.035999 47.082001 36.862999 # H HOH
500 167 1 0.000000 35.500999 47.070999 36.307999 # H HOH
501 167 2 0.000000 36.257999 46.500999 36.624001 # O HOH
502 168 1 0.000000 27.809000 30.316999 90.630997 # H HOH
503 168 1 0.000000 26.311001 30.173000 89.996002 # H HOH
504 168 2 0.000000 27.254000 30.448000 89.809998 # O HOH
505 169 1 0.000000 37.750000 23.423000 10.371000 # H HOH
506 169 1 0.000000 37.226002 23.740999 8.858000 # H HOH
507 169 2 0.000000 37.035000 23.865999 9.831000 # O HOH
508 170 1 0.000000 7.355000 23.892000 36.993000 # H HOH
509 170 1 0.000000 6.327000 22.629000 36.877998 # H HOH
510 170 2 0.000000 7.288000 22.900000 36.883999 # O HOH
511 171 1 0.000000 35.743999 49.063000 65.677002 # H HOH
512 171 1 0.000000 36.723999 50.250000 65.129997 # H HOH
513 171 2 0.000000 36.195999 49.442001 64.869003 # O HOH
514 172 1 0.000000 37.494999 47.082001 50.137001 # H HOH
515 172 1 0.000000 36.344002 46.080002 50.719002 # H HOH
516 172 2 0.000000 37.264000 46.127998 50.331001 # O HOH
517 173 1 0.000000 47.488998 36.658001 59.731998 # H HOH
518 173 1 0.000000 46.541000 37.521000 58.720001 # H HOH
519 173 2 0.000000 47.320999 37.564999 59.344002 # O HOH
520 174 1 0.000000 29.177000 50.521000 74.824997 # H HOH